<VTKFile type="UnstructuredGrid">
<UnstructuredGrid>
<Piece NumberOfPoints="4" NumberOfCells="2">
<Points>
<DataArray type="Float64" Name="coordinates" NumberOfComponents="3" format="ascii">
1 -1 0 
1 1 0 
-1 1 0 
-1 -1 0 
</DataArray>
</Points>
<Cells>
<DataArray type="Int32" Name="connectivity" format="ascii">
3 0 1 
3 1 2 
</DataArray>
<DataArray type="Int32" Name="offsets" format="ascii">
3
6
</DataArray>
<DataArray type="UInt8" Name="types" format="ascii">
5
5
</DataArray>
</Cells>
<PointData>
</PointData>
<CellData>
<DataArray type="Int32" Name="apf_part" NumberOfComponents="1" format="ascii">
0
0
</DataArray>
</CellData>
</Piece>
</UnstructuredGrid>
</VTKFile>
