<VTKFile type="UnstructuredGrid">
<UnstructuredGrid>
<Piece NumberOfPoints="100" NumberOfCells="166">
<Points>
<DataArray type="Float64" Name="coordinates" NumberOfComponents="3" format="ascii">
1 0 0 
1 0.125 0 
0.875 0 0 
0.924709 0.0808994 0 
0.75 0 0 
0.625 0 0 
1 0.25 0 
0.91957 0.183598 0 
0.835142 0.10126 0 
0.5 0 0 
0.704955 0.0864534 0 
0.602784 0.0578422 0 
1 0.375 0 
0.921503 0.303238 0 
0.836068 0.24119 0 
0.75407 0.195987 0 
1 0.5 0 
0.375 0 0 
0.25 0 0 
0.125 0 0 
0.465992 0.0911249 0 
0.662733 0.163631 0 
0.570214 0.145734 0 
0.925685 0.411656 0 
0.840836 0.36573 0 
0.75601 0.31622 0 
0.675906 0.270629 0 
1 0.875 0 
1 0.75 0 
0.929722 0.523771 0 
1 0.625 0 
0 0 0 
0.0999348 0.0994824 0 
0.333641 0.0867678 0 
0.213926 0.09231 0 
0.394726 0.159406 0 
0.481637 0.194159 0 
0.582904 0.233086 0 
0.588233 0.333859 0 
0.847256 0.484181 0 
0.752615 0.440962 0 
0.665573 0.390085 0 
1 1 0 
0.918171 0.917228 0 
0.906843 0.826348 0 
0.894744 0.713977 0 
0.871286 0.598464 0 
0 0.125 0 
0.0782568 0.190039 0 
0.181215 0.189869 0 
0.297001 0.179264 0 
0.386481 0.245822 0 
0.487478 0.289034 0 
0.492 0.376606 0 
0.55667 0.456356 0 
0.763393 0.564503 0 
0.640115 0.526795 0 
0.875 1 0 
0.826555 0.904873 0 
0.80159 0.797009 0 
0.783885 0.684587 0 
0 0.25 0 
0.110134 0.285842 0 
0.25947 0.302104 0 
0.393614 0.350673 0 
0.431975 0.452359 0 
0.501038 0.545121 0 
0.676756 0.655206 0 
0.556825 0.640469 0 
0.75 1 0 
0.716266 0.894709 0 
0.69554 0.778365 0 
0 0.375 0 
0.139414 0.408405 0 
0.29695 0.435907 0 
0.354342 0.548317 0 
0.433243 0.645983 0 
0.593349 0.75061 0 
0.497433 0.723473 0 
0.625 1 0 
0.598831 0.888177 0 
0 0.5 0 
0.169931 0.551578 0 
0.293901 0.663326 0 
0.395922 0.755193 0 
0.500839 0.84162 0 
0.5 1 0 
0 0.625 0 
0.144104 0.698586 0 
0.268188 0.78504 0 
0.385034 0.87845 0 
0.375 1 0 
0 0.75 0 
0.134727 0.818933 0 
0.25736 0.900491 0 
0.25 1 0 
0.125 1 0 
0 0.875 0 
0.127848 0.932404 0 
0 1 0 
</DataArray>
</Points>
<Cells>
<DataArray type="Int32" Name="connectivity" format="ascii">
2 0 3 
0 1 3 
1 6 7 
7 3 1 
2 3 8 
3 7 8 
4 2 8 
5 4 10 
8 10 4 
5 10 11 
9 5 11 
13 7 6 
6 12 13 
14 7 13 
8 7 14 
8 15 10 
15 8 14 
17 9 20 
11 20 9 
10 15 21 
21 11 10 
20 11 22 
11 21 22 
23 13 12 
12 16 23 
13 23 24 
14 13 24 
14 25 15 
24 25 14 
26 15 25 
26 21 15 
29 23 16 
30 29 16 
31 19 32 
18 17 33 
20 33 17 
19 18 34 
34 32 19 
33 34 18 
35 33 20 
20 36 35 
36 20 22 
37 22 21 
21 26 37 
22 37 36 
38 37 26 
39 24 23 
23 29 39 
25 24 40 
39 40 24 
25 40 41 
25 41 26 
38 26 41 
27 42 43 
27 43 44 
28 27 44 
30 28 45 
44 45 28 
46 39 29 
46 30 45 
30 46 29 
47 31 32 
47 32 48 
32 49 48 
49 32 34 
34 33 50 
49 34 50 
33 35 50 
50 35 51 
36 51 35 
51 36 52 
52 37 38 
37 52 36 
53 52 38 
38 41 54 
54 53 38 
55 40 39 
39 46 55 
40 55 56 
56 54 41 
41 40 56 
42 57 43 
58 43 57 
43 58 44 
59 45 44 
44 58 59 
60 45 59 
46 60 55 
60 46 45 
61 47 48 
49 62 48 
48 62 61 
63 62 49 
50 63 49 
63 50 51 
51 64 63 
64 51 52 
52 53 64 
65 64 53 
53 54 65 
66 54 56 
65 54 66 
56 55 67 
60 67 55 
67 68 56 
56 68 66 
57 69 58 
59 58 70 
70 58 69 
59 70 71 
71 67 60 
59 71 60 
72 61 62 
72 62 73 
63 73 62 
73 63 74 
74 63 64 
65 74 64 
75 74 65 
66 75 65 
66 76 75 
68 76 66 
67 77 68 
77 67 71 
78 68 77 
76 68 78 
69 79 70 
80 70 79 
80 71 70 
77 71 80 
81 72 73 
81 73 82 
74 82 73 
82 74 75 
75 83 82 
83 75 76 
76 78 84 
84 83 76 
80 85 77 
78 85 84 
85 78 77 
86 85 80 
79 86 80 
87 81 82 
88 82 83 
82 88 87 
83 84 89 
89 88 83 
84 90 89 
86 90 85 
90 84 85 
86 91 90 
88 92 87 
93 88 89 
92 88 93 
89 90 94 
94 93 89 
94 90 91 
91 95 94 
97 92 93 
93 98 97 
98 93 94 
95 98 94 
98 95 96 
99 97 98 
96 99 98 
</DataArray>
<DataArray type="Int32" Name="offsets" format="ascii">
3
6
9
12
15
18
21
24
27
30
33
36
39
42
45
48
51
54
57
60
63
66
69
72
75
78
81
84
87
90
93
96
99
102
105
108
111
114
117
120
123
126
129
132
135
138
141
144
147
150
153
156
159
162
165
168
171
174
177
180
183
186
189
192
195
198
201
204
207
210
213
216
219
222
225
228
231
234
237
240
243
246
249
252
255
258
261
264
267
270
273
276
279
282
285
288
291
294
297
300
303
306
309
312
315
318
321
324
327
330
333
336
339
342
345
348
351
354
357
360
363
366
369
372
375
378
381
384
387
390
393
396
399
402
405
408
411
414
417
420
423
426
429
432
435
438
441
444
447
450
453
456
459
462
465
468
471
474
477
480
483
486
489
492
495
498
</DataArray>
<DataArray type="UInt8" Name="types" format="ascii">
5
5
5
5
5
5
5
5
5
5
5
5
5
5
5
5
5
5
5
5
5
5
5
5
5
5
5
5
5
5
5
5
5
5
5
5
5
5
5
5
5
5
5
5
5
5
5
5
5
5
5
5
5
5
5
5
5
5
5
5
5
5
5
5
5
5
5
5
5
5
5
5
5
5
5
5
5
5
5
5
5
5
5
5
5
5
5
5
5
5
5
5
5
5
5
5
5
5
5
5
5
5
5
5
5
5
5
5
5
5
5
5
5
5
5
5
5
5
5
5
5
5
5
5
5
5
5
5
5
5
5
5
5
5
5
5
5
5
5
5
5
5
5
5
5
5
5
5
5
5
5
5
5
5
5
5
5
5
5
5
5
5
5
5
5
5
</DataArray>
</Cells>
<PointData>
</PointData>
<CellData>
<DataArray type="Int32" Name="faceNums_1" NumberOfComponents="1" format="ascii">
0 
1 
2 
3 
4 
5 
6 
7 
8 
9 
10 
11 
12 
13 
14 
15 
16 
17 
18 
19 
20 
21 
22 
23 
24 
25 
26 
27 
28 
29 
30 
31 
32 
33 
34 
35 
36 
37 
38 
39 
40 
41 
42 
43 
44 
45 
46 
47 
48 
49 
50 
51 
52 
53 
54 
55 
56 
57 
58 
59 
60 
61 
62 
63 
64 
65 
66 
67 
68 
69 
70 
71 
72 
73 
74 
75 
76 
77 
78 
79 
80 
81 
82 
83 
84 
85 
86 
87 
88 
89 
90 
91 
92 
93 
94 
95 
96 
97 
98 
99 
100 
101 
102 
103 
104 
105 
106 
107 
108 
109 
110 
111 
112 
113 
114 
115 
116 
117 
118 
119 
120 
121 
122 
123 
124 
125 
126 
127 
128 
129 
130 
131 
132 
133 
134 
135 
136 
137 
138 
139 
140 
141 
142 
143 
144 
145 
146 
147 
148 
149 
150 
151 
152 
153 
154 
155 
156 
157 
158 
159 
160 
161 
162 
163 
164 
165 
</DataArray>
<DataArray type="Int32" Name="apf_part" NumberOfComponents="1" format="ascii">
0
0
0
0
0
0
0
0
0
0
0
0
0
0
0
0
0
0
0
0
0
0
0
0
0
0
0
0
0
0
0
0
0
0
0
0
0
0
0
0
0
0
0
0
0
0
0
0
0
0
0
0
0
0
0
0
0
0
0
0
0
0
0
0
0
0
0
0
0
0
0
0
0
0
0
0
0
0
0
0
0
0
0
0
0
0
0
0
0
0
0
0
0
0
0
0
0
0
0
0
0
0
0
0
0
0
0
0
0
0
0
0
0
0
0
0
0
0
0
0
0
0
0
0
0
0
0
0
0
0
0
0
0
0
0
0
0
0
0
0
0
0
0
0
0
0
0
0
0
0
0
0
0
0
0
0
0
0
0
0
0
0
0
0
0
0
</DataArray>
</CellData>
</Piece>
</UnstructuredGrid>
</VTKFile>
