<VTKFile type="UnstructuredGrid">
<UnstructuredGrid>
<Piece NumberOfPoints="144" NumberOfCells="242">
<Points>
<DataArray type="Float64" Name="coordinates" NumberOfComponents="3" format="ascii">
8.49831e-16 3 0 
0.426945 2.96946 0 
7.98326e-16 2.81818 0 
0.845198 2.87848 0 
0.401069 2.7895 0 
7.46821e-16 2.63636 0 
1.24625 2.7289 0 
0.793974 2.70403 0 
0.375194 2.60953 0 
6.95316e-16 2.45455 0 
1.62192 2.52376 0 
1.17072 2.56351 0 
0.742749 2.52957 0 
0.349318 2.42956 0 
6.43811e-16 2.27273 0 
1.96458 2.26725 0 
1.52362 2.37081 0 
1.09519 2.39812 0 
0.691525 2.35512 0 
0.323443 2.24959 0 
5.92306e-16 2.09091 0 
2.26725 1.96458 0 
1.84552 2.12984 0 
1.42533 2.21785 0 
1.01966 2.23273 0 
0.640301 2.18067 0 
0.297567 2.06963 0 
5.40801e-16 1.90909 0 
2.52376 1.62192 0 
2.12984 1.84552 0 
1.72645 1.99243 0 
1.32703 2.0649 0 
0.944125 2.06735 0 
0.589077 2.00621 0 
0.271692 1.88966 0 
4.89297e-16 1.72727 0 
2.7289 1.24625 0 
2.37081 1.52362 0 
1.99243 1.72645 0 
1.60739 1.85502 0 
1.22873 1.91194 0 
0.868595 1.90196 0 
0.537853 1.83176 0 
0.245817 1.70969 0 
4.37792e-16 1.54545 0 
2.87848 0.845198 0 
2.56351 1.17072 0 
2.21785 1.42533 0 
1.85502 1.60739 0 
1.48832 1.71761 0 
1.13043 1.75898 0 
0.793065 1.73657 0 
0.486629 1.65731 0 
0.219941 1.52972 0 
3.86287e-16 1.36364 0 
2.96946 0.426945 0 
2.70403 0.793974 0 
2.39812 1.09519 0 
2.0649 1.32703 0 
1.71761 1.48832 0 
1.36925 1.5802 0 
1.03213 1.60603 0 
0.717535 1.57118 0 
0.435405 1.48285 0 
0.194066 1.34976 0 
3.34782e-16 1.18182 0 
3 0 0 
2.7895 0.401069 0 
2.52957 0.742749 0 
2.23273 1.01966 0 
1.91194 1.22873 0 
1.5802 1.36925 0 
1.25019 1.44279 0 
0.933834 1.45307 0 
0.642005 1.40579 0 
0.384181 1.3084 0 
0.16819 1.16979 0 
2.83277e-16 1 0 
2.81818 0 0 
2.60953 0.375194 0 
2.35512 0.691525 0 
2.06735 0.944125 0 
1.75898 1.13043 0 
1.44279 1.25019 0 
1.13112 1.30539 0 
0.835536 1.30012 0 
0.566475 1.24041 0 
0.332957 1.13395 0 
0.142315 0.989821 0 
2.63636 0 0 
2.42956 0.349318 0 
2.18067 0.640301 0 
1.90196 0.868595 0 
1.60603 1.03213 0 
1.30539 1.13112 0 
1.01206 1.16798 0 
0.737237 1.14716 0 
0.490945 1.07502 0 
0.281733 0.959493 0 
2.45455 0 0 
2.24959 0.323443 0 
2.00621 0.589077 0 
1.73657 0.793065 0 
1.45307 0.933834 0 
1.16798 1.01206 0 
0.892992 1.03057 0 
0.638939 0.994209 0 
0.415415 0.909632 0 
2.27273 0 0 
2.06963 0.297567 0 
1.83176 0.537853 0 
1.57118 0.717535 0 
1.30012 0.835536 0 
1.03057 0.892992 0 
0.773926 0.893159 0 
0.540641 0.841254 0 
2.09091 0 0 
1.88966 0.271692 0 
1.65731 0.486629 0 
1.40579 0.642005 0 
1.14716 0.737237 0 
0.893159 0.773926 0 
0.654861 0.75575 0 
1.90909 0 0 
1.70969 0.245817 0 
1.48285 0.435405 0 
1.24041 0.566475 0 
0.994209 0.638939 0 
0.75575 0.654861 0 
1.72727 0 0 
1.52972 0.219941 0 
1.3084 0.384181 0 
1.07502 0.490945 0 
0.841254 0.540641 0 
1.54545 0 0 
1.34976 0.194066 0 
1.13395 0.332957 0 
0.909632 0.415415 0 
1.36364 0 0 
1.16979 0.16819 0 
0.959493 0.281733 0 
1.18182 0 0 
0.989821 0.142315 0 
1 0 0 
</DataArray>
</Points>
<Cells>
<DataArray type="Int32" Name="connectivity" format="ascii">
1 0 2 
3 1 4 
4 1 2 
4 2 5 
6 3 7 
7 3 4 
7 4 8 
8 4 5 
8 5 9 
10 6 11 
11 6 7 
11 7 12 
12 7 8 
12 8 13 
13 8 9 
13 9 14 
15 10 16 
16 10 11 
16 11 17 
17 11 12 
17 12 18 
18 12 13 
18 13 19 
19 13 14 
19 14 20 
21 15 22 
22 15 16 
22 16 23 
23 16 17 
23 17 24 
24 17 18 
24 18 25 
25 18 19 
25 19 26 
26 19 20 
26 20 27 
28 21 29 
29 21 22 
29 22 30 
30 22 23 
30 23 31 
31 23 24 
31 24 32 
32 24 25 
32 25 33 
33 25 26 
33 26 34 
34 26 27 
34 27 35 
36 28 37 
37 28 29 
37 29 38 
38 29 30 
38 30 39 
39 30 31 
39 31 40 
40 31 32 
40 32 41 
41 32 33 
41 33 42 
42 33 34 
42 34 43 
43 34 35 
43 35 44 
45 36 46 
46 36 37 
46 37 47 
47 37 38 
47 38 48 
48 38 39 
48 39 49 
49 39 40 
49 40 50 
50 40 41 
50 41 51 
51 41 42 
51 42 52 
52 42 43 
52 43 53 
53 43 44 
53 44 54 
55 45 56 
56 45 46 
56 46 57 
57 46 47 
57 47 58 
58 47 48 
58 48 59 
59 48 49 
59 49 60 
60 49 50 
60 50 61 
61 50 51 
61 51 62 
62 51 52 
62 52 63 
63 52 53 
63 53 64 
64 53 54 
64 54 65 
66 55 67 
67 55 56 
67 56 68 
68 56 57 
68 57 69 
69 57 58 
69 58 70 
70 58 59 
70 59 71 
71 59 60 
71 60 72 
72 60 61 
72 61 73 
73 61 62 
73 62 74 
74 62 63 
74 63 75 
75 63 64 
75 64 76 
76 64 65 
76 65 77 
78 66 67 
78 67 79 
79 67 68 
79 68 80 
80 68 69 
80 69 81 
81 69 70 
81 70 82 
82 70 71 
82 71 83 
83 71 72 
83 72 84 
84 72 73 
84 73 85 
85 73 74 
85 74 86 
86 74 75 
86 75 87 
87 75 76 
87 76 88 
88 76 77 
89 78 79 
89 79 90 
90 79 80 
90 80 91 
91 80 81 
91 81 92 
92 81 82 
92 82 93 
93 82 83 
93 83 94 
94 83 84 
94 84 95 
95 84 85 
95 85 96 
96 85 86 
96 86 97 
97 86 87 
97 87 98 
98 87 88 
99 89 90 
99 90 100 
100 90 91 
100 91 101 
101 91 92 
101 92 102 
102 92 93 
102 93 103 
103 93 94 
103 94 104 
104 94 95 
104 95 105 
105 95 96 
105 96 106 
106 96 97 
106 97 107 
107 97 98 
108 99 100 
108 100 109 
109 100 101 
109 101 110 
110 101 102 
110 102 111 
111 102 103 
111 103 112 
112 103 104 
112 104 113 
113 104 105 
113 105 114 
114 105 106 
114 106 115 
115 106 107 
116 108 109 
116 109 117 
117 109 110 
117 110 118 
118 110 111 
118 111 119 
119 111 112 
119 112 120 
120 112 113 
120 113 121 
121 113 114 
121 114 122 
122 114 115 
123 116 117 
123 117 124 
124 117 118 
124 118 125 
125 118 119 
125 119 126 
126 119 120 
126 120 127 
127 120 121 
127 121 128 
128 121 122 
129 123 124 
129 124 130 
130 124 125 
130 125 131 
131 125 126 
131 126 132 
132 126 127 
132 127 133 
133 127 128 
134 129 130 
134 130 135 
135 130 131 
135 131 136 
136 131 132 
136 132 137 
137 132 133 
138 134 135 
138 135 139 
139 135 136 
139 136 140 
140 136 137 
141 138 139 
141 139 142 
142 139 140 
143 141 142 
</DataArray>
<DataArray type="Int32" Name="offsets" format="ascii">
3
6
9
12
15
18
21
24
27
30
33
36
39
42
45
48
51
54
57
60
63
66
69
72
75
78
81
84
87
90
93
96
99
102
105
108
111
114
117
120
123
126
129
132
135
138
141
144
147
150
153
156
159
162
165
168
171
174
177
180
183
186
189
192
195
198
201
204
207
210
213
216
219
222
225
228
231
234
237
240
243
246
249
252
255
258
261
264
267
270
273
276
279
282
285
288
291
294
297
300
303
306
309
312
315
318
321
324
327
330
333
336
339
342
345
348
351
354
357
360
363
366
369
372
375
378
381
384
387
390
393
396
399
402
405
408
411
414
417
420
423
426
429
432
435
438
441
444
447
450
453
456
459
462
465
468
471
474
477
480
483
486
489
492
495
498
501
504
507
510
513
516
519
522
525
528
531
534
537
540
543
546
549
552
555
558
561
564
567
570
573
576
579
582
585
588
591
594
597
600
603
606
609
612
615
618
621
624
627
630
633
636
639
642
645
648
651
654
657
660
663
666
669
672
675
678
681
684
687
690
693
696
699
702
705
708
711
714
717
720
723
726
</DataArray>
<DataArray type="UInt8" Name="types" format="ascii">
5
5
5
5
5
5
5
5
5
5
5
5
5
5
5
5
5
5
5
5
5
5
5
5
5
5
5
5
5
5
5
5
5
5
5
5
5
5
5
5
5
5
5
5
5
5
5
5
5
5
5
5
5
5
5
5
5
5
5
5
5
5
5
5
5
5
5
5
5
5
5
5
5
5
5
5
5
5
5
5
5
5
5
5
5
5
5
5
5
5
5
5
5
5
5
5
5
5
5
5
5
5
5
5
5
5
5
5
5
5
5
5
5
5
5
5
5
5
5
5
5
5
5
5
5
5
5
5
5
5
5
5
5
5
5
5
5
5
5
5
5
5
5
5
5
5
5
5
5
5
5
5
5
5
5
5
5
5
5
5
5
5
5
5
5
5
5
5
5
5
5
5
5
5
5
5
5
5
5
5
5
5
5
5
5
5
5
5
5
5
5
5
5
5
5
5
5
5
5
5
5
5
5
5
5
5
5
5
5
5
5
5
5
5
5
5
5
5
5
5
5
5
5
5
5
5
5
5
5
5
5
5
5
5
5
5
5
5
5
5
5
5
</DataArray>
</Cells>
<PointData>
</PointData>
<CellData>
<DataArray type="Int32" Name="faceNums_1" NumberOfComponents="1" format="ascii">
0 
1 
2 
3 
4 
5 
6 
7 
8 
9 
10 
11 
12 
13 
14 
15 
16 
17 
18 
19 
20 
21 
22 
23 
24 
25 
26 
27 
28 
29 
30 
31 
32 
33 
34 
35 
36 
37 
38 
39 
40 
41 
42 
43 
44 
45 
46 
47 
48 
49 
50 
51 
52 
53 
54 
55 
56 
57 
58 
59 
60 
61 
62 
63 
64 
65 
66 
67 
68 
69 
70 
71 
72 
73 
74 
75 
76 
77 
78 
79 
80 
81 
82 
83 
84 
85 
86 
87 
88 
89 
90 
91 
92 
93 
94 
95 
96 
97 
98 
99 
100 
101 
102 
103 
104 
105 
106 
107 
108 
109 
110 
111 
112 
113 
114 
115 
116 
117 
118 
119 
120 
121 
122 
123 
124 
125 
126 
127 
128 
129 
130 
131 
132 
133 
134 
135 
136 
137 
138 
139 
140 
141 
142 
143 
144 
145 
146 
147 
148 
149 
150 
151 
152 
153 
154 
155 
156 
157 
158 
159 
160 
161 
162 
163 
164 
165 
166 
167 
168 
169 
170 
171 
172 
173 
174 
175 
176 
177 
178 
179 
180 
181 
182 
183 
184 
185 
186 
187 
188 
189 
190 
191 
192 
193 
194 
195 
196 
197 
198 
199 
200 
201 
202 
203 
204 
205 
206 
207 
208 
209 
210 
211 
212 
213 
214 
215 
216 
217 
218 
219 
220 
221 
222 
223 
224 
225 
226 
227 
228 
229 
230 
231 
232 
233 
234 
235 
236 
237 
238 
239 
240 
241 
</DataArray>
<DataArray type="Int32" Name="apf_part" NumberOfComponents="1" format="ascii">
0
0
0
0
0
0
0
0
0
0
0
0
0
0
0
0
0
0
0
0
0
0
0
0
0
0
0
0
0
0
0
0
0
0
0
0
0
0
0
0
0
0
0
0
0
0
0
0
0
0
0
0
0
0
0
0
0
0
0
0
0
0
0
0
0
0
0
0
0
0
0
0
0
0
0
0
0
0
0
0
0
0
0
0
0
0
0
0
0
0
0
0
0
0
0
0
0
0
0
0
0
0
0
0
0
0
0
0
0
0
0
0
0
0
0
0
0
0
0
0
0
0
0
0
0
0
0
0
0
0
0
0
0
0
0
0
0
0
0
0
0
0
0
0
0
0
0
0
0
0
0
0
0
0
0
0
0
0
0
0
0
0
0
0
0
0
0
0
0
0
0
0
0
0
0
0
0
0
0
0
0
0
0
0
0
0
0
0
0
0
0
0
0
0
0
0
0
0
0
0
0
0
0
0
0
0
0
0
0
0
0
0
0
0
0
0
0
0
0
0
0
0
0
0
0
0
0
0
0
0
0
0
0
0
0
0
0
0
0
0
0
0
</DataArray>
</CellData>
</Piece>
</UnstructuredGrid>
</VTKFile>
