<VTKFile type="UnstructuredGrid">
<UnstructuredGrid>
<Piece NumberOfPoints="9" NumberOfCells="8">
<Points>
<DataArray type="Float64" Name="coordinates" NumberOfComponents="3" format="ascii">
-1 -1 0 
0 -1 0 
1 -1 0 
-1 0 0 
0 0 0 
1 0 0 
-1 1 0 
0 1 0 
1 1 0 
</DataArray>
</Points>
<Cells>
<DataArray type="Int32" Name="connectivity" format="ascii">
0 1 4 
0 4 3 
1 2 5 
1 5 4 
3 4 7 
3 7 6 
4 5 8 
4 8 7 
</DataArray>
<DataArray type="Int32" Name="offsets" format="ascii">
3
6
9
12
15
18
21
24
</DataArray>
<DataArray type="UInt8" Name="types" format="ascii">
5
5
5
5
5
5
5
5
</DataArray>
</Cells>
<PointData>
</PointData>
<CellData>
<DataArray type="Int32" Name="faceNums_1" NumberOfComponents="1" format="ascii">
0 
1 
2 
3 
4 
5 
6 
7 
</DataArray>
<DataArray type="Int32" Name="apf_part" NumberOfComponents="1" format="ascii">
0
0
0
0
0
0
0
0
</DataArray>
</CellData>
</Piece>
</UnstructuredGrid>
</VTKFile>
