<VTKFile type="UnstructuredGrid">
<UnstructuredGrid>
<Piece NumberOfPoints="195" NumberOfCells="325">
<Points>
<DataArray type="Float64" Name="coordinates" NumberOfComponents="3" format="ascii">
3.95517 0.597162 0 
3.98878 0.299421 0 
4 4.89859e-16 0 
3.82041 1.1851 0 
3.72128 1.46699 0 
3.89822 0.896599 0 
3.79217 0.221938 0 
3.71839 0.507855 0 
3.48457 0 0 
3.76691 0 0 
3.30322 2.25582 0 
3.57898 1.11689 0 
3.46296 2.00198 0 
3.60207 1.73929 0 
3.41184 1.45139 0 
1 0 0 
1.11408 0 0 
0.99731 0.0733009 0 
3.19403 0 0 
3.51217 0.775162 0 
3.46806 0.307574 0 
3.12301 2.49936 0 
2.92488 2.72857 0 
3.14393 2.17362 0 
3.28212 1.10542 0 
3.20024 1.81576 0 
3.07998 1.46291 0 
2.81978 0 0 
1.07602 0.0614498 0 
1.25599 0 0 
1.1905 0.0795062 0 
2.44553 0 0 
2.07876 0 0 
1.45576 0 0 
1.73105 0 0 
0.975847 0.218455 0 
0.989254 0.146208 0 
1.05056 0.125019 0 
2.9879 0.367521 0 
3.16334 0.708956 0 
2.71289 2.93943 0 
2.90223 2.43764 0 
2.73777 2.66172 0 
2.86329 2.10474 0 
2.94642 1.1172 0 
2.83765 1.77641 0 
2.78759 1.46897 0 
2.48574 3.13387 0 
2.5714 0.35615 0 
1.14105 0.132112 0 
1.33302 0.110008 0 
1.24197 0.177183 0 
2.20005 0.297797 0 
1.84371 0.221964 0 
1.54112 0.164801 0 
0.956991 0.290117 0 
1.04973 0.21786 0 
0.93288 0.360187 0 
2.24556 3.31021 0 
2.68963 0.800175 0 
2.51295 2.77009 0 
2.63591 2.43287 0 
2.55954 2.10439 0 
2.58524 1.29388 0 
2.53443 1.704 0 
2.24334 2.92491 0 
2.28553 0.671405 0 
1.16158 3.82763 0 
0.876076 3.90288 0 
0.293133 3.98924 0 
0.586081 3.95683 0 
1.15405 3.57984 0 
1.44075 3.73152 0 
1.72188 3.61042 0 
1.99292 3.46818 0 
1.17842 0.264933 0 
1.36685 0.299356 0 
1.94398 0.545217 0 
1.63182 0.420205 0 
0.902605 0.430469 0 
1.05612 0.349104 0 
0.971318 0.424007 0 
0.867231 0.497906 0 
1.97123 3.09384 0 
2.30076 1.10931 0 
2.31451 2.46704 0 
2.28642 2.01345 0 
2.28055 1.55793 0 
1.98278 2.72109 0 
1.99853 0.934123 0 
-3.67394e-16 4 0 
0.880316 3.62305 0 
0.587906 3.67571 0 
0.274657 3.73893 0 
0.952582 3.35279 0 
1.33278 3.36073 0 
1.67877 3.23544 0 
1.22056 0.422543 0 
1.42357 0.539538 0 
1.67492 0.755198 0 
0.826828 0.562455 0 
0.962336 0.503155 0 
1.07846 0.486103 0 
0.91697 0.563948 0 
1.68516 2.89708 0 
1.99776 1.37898 0 
1.98062 2.30252 0 
1.9787 1.84794 0 
1.73186 2.57258 0 
1.74136 1.17694 0 
-3.20752e-16 3.61914 0 
0.605429 3.38025 0 
0.305724 3.45326 0 
0.728208 3.13027 0 
1.02695 3.0532 0 
1.36769 2.97745 0 
1.21867 0.603598 0 
1.38083 0.782614 0 
1.51432 1.04275 0 
0.783466 0.621434 0 
0.734814 0.678269 0 
0.900069 0.637556 0 
1.02838 0.618669 0 
1.44444 2.59201 0 
1.71463 1.6419 0 
1.62647 2.15731 0 
1.49219 1.38791 0 
-2.74828e-16 3.24414 0 
0.36635 3.06139 0 
0.704808 2.81984 0 
1.07566 2.67811 0 
1.32274 1.2075 0 
1.15976 0.777765 0 
1.25787 0.99045 0 
0.682049 0.731307 0 
0.759255 0.75519 0 
0.841837 0.71258 0 
0.965077 0.756995 0 
0.624195 0.781269 0 
1.19108 2.26883 0 
1.22068 1.43063 0 
1.34982 1.83137 0 
-2.28904e-16 2.86914 0 
0.352345 2.64412 0 
0.732148 2.3729 0 
1.12861 1.18577 0 
1.00417 0.968353 0 
0.701146 0.816433 0 
0.827427 0.847781 0 
0.630665 0.852753 0 
0.562693 0.826666 0 
0.500039 0.866003 0 
1.00547 1.35858 0 
0.935026 1.97326 0 
1.00558 1.6177 0 
-1.82296e-16 2.48856 0 
0.316753 2.24653 0 
0.565114 1.97322 0 
0.434043 0.900892 0 
0.903745 1.18942 0 
0.786703 1.03029 0 
0.688405 0.920737 0 
0.58057 0.913995 0 
0.4949 0.9565 0 
0.805643 1.41146 0 
0.714636 1.67699 0 
-1.35688e-16 2.10798 0 
0.256921 1.88562 0 
0.441713 1.6718 0 
0.415811 0.959973 0 
0.365629 0.930761 0 
0.673522 1.20831 0 
0.450597 1.03708 0 
0.60672 1.06131 0 
0.534275 1.4106 0 
-9.3608e-17 1.76437 0 
0.294536 0.95564 0 
0.338989 1.4606 0 
0.197888 1.59082 0 
0.292097 1.0383 0 
0.443457 1.16932 0 
0.321966 1.2757 0 
-6.29348e-17 1.5139 0 
0.222765 0.974872 0 
0.149703 1.32123 0 
0.185113 1.19127 0 
0.244876 1.10457 0 
-3.22615e-17 1.26344 0 
0.149765 0.988722 0 
0.0867847 1.17529 0 
0.127996 1.08641 0 
-1.40872e-17 1.11503 0 
0.0750943 0.997176 0 
0.057897 1.07436 0 
0 1 0 
</DataArray>
</Points>
<Cells>
<DataArray type="Int32" Name="connectivity" format="ascii">
2 1 6 
0 5 7 
7 1 0 
7 6 1 
9 2 6 
3 4 11 
5 3 11 
4 13 14 
14 11 4 
5 11 19 
19 7 5 
6 7 20 
20 7 19 
8 20 18 
20 9 6 
9 20 8 
12 10 23 
21 23 10 
19 11 24 
24 11 14 
12 23 25 
13 25 14 
25 13 12 
14 26 24 
26 14 25 
15 16 28 
17 15 28 
16 29 30 
30 28 16 
37 17 28 
17 37 36 
18 20 38 
27 18 38 
39 19 24 
39 38 20 
20 19 39 
21 22 41 
41 23 21 
42 41 22 
22 40 42 
23 41 43 
25 23 43 
44 24 26 
39 24 44 
43 45 25 
45 26 25 
44 26 46 
26 45 46 
31 27 48 
27 38 48 
49 28 30 
28 49 37 
29 33 50 
29 50 30 
49 30 51 
51 30 50 
32 31 52 
48 52 31 
32 53 34 
52 53 32 
54 50 33 
34 53 54 
33 34 54 
55 35 56 
35 36 56 
37 56 36 
49 56 37 
48 38 59 
44 59 39 
59 38 39 
40 47 60 
60 42 40 
41 42 61 
42 60 61 
61 43 41 
43 61 62 
45 43 62 
63 59 44 
46 63 44 
62 64 45 
46 45 64 
46 64 63 
47 58 65 
47 65 60 
48 66 52 
59 66 48 
72 67 71 
75 56 49 
51 75 49 
50 54 76 
50 76 51 
76 75 51 
53 52 77 
66 77 52 
78 54 53 
78 53 77 
54 78 76 
57 55 80 
80 56 75 
56 80 55 
79 57 81 
57 80 81 
83 65 58 
58 74 83 
59 63 84 
84 66 59 
85 61 60 
62 61 85 
65 85 60 
62 86 64 
85 86 62 
63 64 87 
87 84 63 
87 64 86 
85 65 88 
83 88 65 
77 66 89 
66 84 89 
67 91 71 
91 67 68 
92 91 68 
68 70 92 
69 90 93 
70 93 92 
93 70 69 
94 71 91 
71 94 95 
72 71 95 
95 73 72 
74 73 96 
96 83 74 
73 95 96 
80 75 97 
75 76 97 
76 98 97 
76 78 98 
99 77 89 
99 98 78 
77 99 78 
82 79 101 
81 101 79 
97 102 80 
102 101 81 
81 80 102 
100 82 103 
82 101 103 
83 96 104 
104 88 83 
105 84 87 
105 89 84 
106 86 85 
88 106 85 
86 106 107 
107 105 87 
87 86 107 
108 106 88 
88 104 108 
109 99 89 
89 105 109 
90 110 93 
111 91 92 
94 91 111 
111 92 112 
112 93 110 
112 92 93 
111 113 94 
114 94 113 
114 95 94 
95 114 115 
96 95 115 
115 104 96 
102 97 116 
116 97 98 
98 99 117 
117 116 98 
117 99 118 
99 109 118 
119 100 121 
103 121 100 
122 101 102 
122 102 116 
103 122 121 
101 122 103 
123 104 115 
104 123 108 
124 105 107 
124 109 105 
107 106 125 
108 125 106 
125 108 123 
125 124 107 
109 124 126 
109 126 118 
110 127 112 
112 128 111 
127 128 112 
111 128 113 
128 129 113 
129 114 113 
114 129 130 
115 130 123 
115 114 130 
131 118 126 
117 132 116 
122 116 132 
133 132 117 
118 133 117 
133 118 131 
134 120 135 
120 119 136 
136 135 120 
121 136 119 
121 137 136 
137 121 122 
132 137 122 
123 139 125 
139 123 130 
126 140 131 
124 125 141 
126 124 141 
141 125 139 
141 140 126 
127 142 128 
128 143 129 
143 128 142 
144 129 143 
144 139 130 
129 144 130 
131 140 145 
145 133 131 
146 137 132 
132 133 146 
146 133 145 
138 134 147 
135 147 134 
148 147 135 
148 135 136 
148 136 137 
148 137 146 
138 147 149 
150 138 149 
140 152 145 
139 153 141 
144 153 139 
140 154 152 
154 141 153 
140 141 154 
142 155 143 
155 156 143 
144 143 156 
144 156 157 
153 144 157 
159 145 152 
146 145 159 
146 160 148 
159 160 146 
161 149 147 
161 148 160 
148 161 147 
149 161 162 
162 150 149 
150 162 151 
158 151 163 
151 162 163 
164 159 152 
164 152 154 
157 165 153 
154 165 164 
154 153 165 
155 166 156 
156 167 157 
166 167 156 
157 168 165 
168 157 167 
163 169 158 
170 158 169 
171 159 164 
171 160 159 
172 169 163 
173 161 160 
173 162 161 
160 171 173 
162 173 163 
163 173 172 
174 171 164 
165 168 174 
164 165 174 
166 175 167 
174 168 177 
178 167 175 
178 177 168 
167 178 168 
179 169 172 
179 170 169 
170 179 176 
172 180 179 
180 172 173 
171 180 173 
174 180 171 
181 174 177 
180 174 181 
175 182 178 
183 176 179 
184 181 177 
178 184 177 
184 178 182 
181 184 185 
179 186 183 
186 179 180 
181 186 180 
186 181 185 
182 187 184 
188 183 186 
184 189 185 
189 184 187 
190 185 189 
185 190 186 
186 190 188 
187 191 189 
192 188 190 
191 193 189 
190 193 192 
190 189 193 
194 192 193 
191 194 193 
</DataArray>
<DataArray type="Int32" Name="offsets" format="ascii">
3
6
9
12
15
18
21
24
27
30
33
36
39
42
45
48
51
54
57
60
63
66
69
72
75
78
81
84
87
90
93
96
99
102
105
108
111
114
117
120
123
126
129
132
135
138
141
144
147
150
153
156
159
162
165
168
171
174
177
180
183
186
189
192
195
198
201
204
207
210
213
216
219
222
225
228
231
234
237
240
243
246
249
252
255
258
261
264
267
270
273
276
279
282
285
288
291
294
297
300
303
306
309
312
315
318
321
324
327
330
333
336
339
342
345
348
351
354
357
360
363
366
369
372
375
378
381
384
387
390
393
396
399
402
405
408
411
414
417
420
423
426
429
432
435
438
441
444
447
450
453
456
459
462
465
468
471
474
477
480
483
486
489
492
495
498
501
504
507
510
513
516
519
522
525
528
531
534
537
540
543
546
549
552
555
558
561
564
567
570
573
576
579
582
585
588
591
594
597
600
603
606
609
612
615
618
621
624
627
630
633
636
639
642
645
648
651
654
657
660
663
666
669
672
675
678
681
684
687
690
693
696
699
702
705
708
711
714
717
720
723
726
729
732
735
738
741
744
747
750
753
756
759
762
765
768
771
774
777
780
783
786
789
792
795
798
801
804
807
810
813
816
819
822
825
828
831
834
837
840
843
846
849
852
855
858
861
864
867
870
873
876
879
882
885
888
891
894
897
900
903
906
909
912
915
918
921
924
927
930
933
936
939
942
945
948
951
954
957
960
963
966
969
972
975
</DataArray>
<DataArray type="UInt8" Name="types" format="ascii">
5
5
5
5
5
5
5
5
5
5
5
5
5
5
5
5
5
5
5
5
5
5
5
5
5
5
5
5
5
5
5
5
5
5
5
5
5
5
5
5
5
5
5
5
5
5
5
5
5
5
5
5
5
5
5
5
5
5
5
5
5
5
5
5
5
5
5
5
5
5
5
5
5
5
5
5
5
5
5
5
5
5
5
5
5
5
5
5
5
5
5
5
5
5
5
5
5
5
5
5
5
5
5
5
5
5
5
5
5
5
5
5
5
5
5
5
5
5
5
5
5
5
5
5
5
5
5
5
5
5
5
5
5
5
5
5
5
5
5
5
5
5
5
5
5
5
5
5
5
5
5
5
5
5
5
5
5
5
5
5
5
5
5
5
5
5
5
5
5
5
5
5
5
5
5
5
5
5
5
5
5
5
5
5
5
5
5
5
5
5
5
5
5
5
5
5
5
5
5
5
5
5
5
5
5
5
5
5
5
5
5
5
5
5
5
5
5
5
5
5
5
5
5
5
5
5
5
5
5
5
5
5
5
5
5
5
5
5
5
5
5
5
5
5
5
5
5
5
5
5
5
5
5
5
5
5
5
5
5
5
5
5
5
5
5
5
5
5
5
5
5
5
5
5
5
5
5
5
5
5
5
5
5
5
5
5
5
5
5
5
5
5
5
5
5
5
5
5
5
5
5
5
5
5
5
5
5
5
5
5
5
5
5
5
5
5
5
5
5
5
5
5
5
5
5
</DataArray>
</Cells>
<PointData>
</PointData>
<CellData>
<DataArray type="Int32" Name="apf_part" NumberOfComponents="1" format="ascii">
0
0
0
0
0
0
0
0
0
0
0
0
0
0
0
0
0
0
0
0
0
0
0
0
0
0
0
0
0
0
0
0
0
0
0
0
0
0
0
0
0
0
0
0
0
0
0
0
0
0
0
0
0
0
0
0
0
0
0
0
0
0
0
0
0
0
0
0
0
0
0
0
0
0
0
0
0
0
0
0
0
0
0
0
0
0
0
0
0
0
0
0
0
0
0
0
0
0
0
0
0
0
0
0
0
0
0
0
0
0
0
0
0
0
0
0
0
0
0
0
0
0
0
0
0
0
0
0
0
0
0
0
0
0
0
0
0
0
0
0
0
0
0
0
0
0
0
0
0
0
0
0
0
0
0
0
0
0
0
0
0
0
0
0
0
0
0
0
0
0
0
0
0
0
0
0
0
0
0
0
0
0
0
0
0
0
0
0
0
0
0
0
0
0
0
0
0
0
0
0
0
0
0
0
0
0
0
0
0
0
0
0
0
0
0
0
0
0
0
0
0
0
0
0
0
0
0
0
0
0
0
0
0
0
0
0
0
0
0
0
0
0
0
0
0
0
0
0
0
0
0
0
0
0
0
0
0
0
0
0
0
0
0
0
0
0
0
0
0
0
0
0
0
0
0
0
0
0
0
0
0
0
0
0
0
0
0
0
0
0
0
0
0
0
0
0
0
0
0
0
0
0
0
0
0
0
0
0
0
0
0
0
0
0
0
0
0
0
0
0
0
0
0
0
0
</DataArray>
</CellData>
</Piece>
</UnstructuredGrid>
</VTKFile>
