<VTKFile type="UnstructuredGrid">
<UnstructuredGrid>
<Piece NumberOfPoints="195" NumberOfCells="325">
<Points>
<DataArray type="Float64" Name="coordinates" NumberOfComponents="3" format="ascii">
3.95517 0.597162 0 
3.98878 0.299421 0 
4 4.89859e-16 0 
3.82041 1.1851 0 
3.72128 1.46699 0 
3.89822 0.896599 0 
3.79217 0.221938 0 
3.71839 0.507855 0 
3.48457 0 0 
3.76691 0 0 
3.30322 2.25582 0 
3.57898 1.11689 0 
3.46296 2.00198 0 
3.60207 1.73929 0 
3.41184 1.45139 0 
1 0 0 
1.11408 0 0 
0.99731 0.0733009 0 
3.19403 0 0 
3.51217 0.775162 0 
3.46806 0.307574 0 
3.12301 2.49936 0 
2.92488 2.72857 0 
3.14393 2.17362 0 
3.28212 1.10542 0 
3.20024 1.81576 0 
3.07998 1.46291 0 
2.81978 0 0 
1.07602 0.0614498 0 
1.25599 0 0 
1.1905 0.0795062 0 
2.44553 0 0 
2.07876 0 0 
1.45576 0 0 
1.73105 0 0 
0.975847 0.218455 0 
0.989254 0.146208 0 
1.05056 0.125019 0 
2.9879 0.367521 0 
3.16334 0.708956 0 
2.71289 2.93943 0 
2.90223 2.43764 0 
2.73777 2.66172 0 
2.86329 2.10474 0 
2.94642 1.1172 0 
2.83765 1.77641 0 
2.78759 1.46897 0 
2.48574 3.13387 0 
2.5714 0.35615 0 
1.14105 0.132112 0 
1.33302 0.110008 0 
1.24197 0.177183 0 
2.20005 0.297797 0 
1.84371 0.221964 0 
1.54112 0.164801 0 
0.956991 0.290117 0 
1.04973 0.21786 0 
0.93288 0.360187 0 
2.24556 3.31021 0 
2.68963 0.800175 0 
2.51295 2.77009 0 
2.63591 2.43287 0 
2.55954 2.10439 0 
2.58524 1.29388 0 
2.53443 1.704 0 
2.24334 2.92491 0 
2.28553 0.671405 0 
1.16158 3.82763 0 
0.876076 3.90288 0 
0.293133 3.98924 0 
0.586081 3.95683 0 
1.15405 3.57984 0 
1.44075 3.73152 0 
1.72188 3.61042 0 
1.99292 3.46818 0 
1.17842 0.264933 0 
1.36685 0.299356 0 
1.94398 0.545217 0 
1.63182 0.420205 0 
0.902605 0.430469 0 
1.05612 0.349104 0 
0.971318 0.424007 0 
0.867231 0.497906 0 
1.97123 3.09384 0 
2.30076 1.10931 0 
2.31451 2.46704 0 
2.28642 2.01345 0 
2.28055 1.55793 0 
1.98278 2.72109 0 
1.99853 0.934123 0 
-3.67394e-16 4 0 
0.880316 3.62305 0 
0.587906 3.67571 0 
0.274657 3.73893 0 
0.952582 3.35279 0 
1.33278 3.36073 0 
1.67877 3.23544 0 
1.22056 0.422543 0 
1.42357 0.539538 0 
1.67492 0.755198 0 
0.826828 0.562455 0 
0.962336 0.503155 0 
1.07846 0.486103 0 
0.91697 0.563948 0 
1.68516 2.89708 0 
1.99776 1.37898 0 
1.98062 2.30252 0 
1.9787 1.84794 0 
1.73186 2.57258 0 
1.74136 1.17694 0 
-3.20752e-16 3.61914 0 
0.605429 3.38025 0 
0.305724 3.45326 0 
0.728208 3.13027 0 
1.02695 3.0532 0 
1.36769 2.97745 0 
1.21867 0.603598 0 
1.38083 0.782614 0 
1.51432 1.04275 0 
0.783466 0.621434 0 
0.734814 0.678269 0 
0.900069 0.637556 0 
1.02838 0.618669 0 
1.44444 2.59201 0 
1.71463 1.6419 0 
1.62647 2.15731 0 
1.49219 1.38791 0 
-2.74828e-16 3.24414 0 
0.36635 3.06139 0 
0.704808 2.81984 0 
1.07566 2.67811 0 
1.32274 1.2075 0 
1.15976 0.777765 0 
1.25787 0.99045 0 
0.682049 0.731307 0 
0.759255 0.75519 0 
0.841837 0.71258 0 
0.965077 0.756995 0 
0.624195 0.781269 0 
1.19108 2.26883 0 
1.22068 1.43063 0 
1.34982 1.83137 0 
-2.28904e-16 2.86914 0 
0.352345 2.64412 0 
0.732148 2.3729 0 
1.12861 1.18577 0 
1.00417 0.968353 0 
0.701146 0.816433 0 
0.827427 0.847781 0 
0.630665 0.852753 0 
0.562693 0.826666 0 
0.500039 0.866003 0 
1.00547 1.35858 0 
0.935026 1.97326 0 
1.00558 1.6177 0 
-1.82296e-16 2.48856 0 
0.316753 2.24653 0 
0.565114 1.97322 0 
0.434043 0.900892 0 
0.903745 1.18942 0 
0.786703 1.03029 0 
0.688405 0.920737 0 
0.58057 0.913995 0 
0.4949 0.9565 0 
0.805643 1.41146 0 
0.714636 1.67699 0 
-1.35688e-16 2.10798 0 
0.256921 1.88562 0 
0.441713 1.6718 0 
0.415811 0.959973 0 
0.365629 0.930761 0 
0.673522 1.20831 0 
0.450597 1.03708 0 
0.60672 1.06131 0 
0.534275 1.4106 0 
-9.3608e-17 1.76437 0 
0.294536 0.95564 0 
0.338989 1.4606 0 
0.197888 1.59082 0 
0.292097 1.0383 0 
0.443457 1.16932 0 
0.321966 1.2757 0 
-6.29348e-17 1.5139 0 
0.222765 0.974872 0 
0.149703 1.32123 0 
0.185113 1.19127 0 
0.244876 1.10457 0 
-3.22615e-17 1.26344 0 
0.149765 0.988722 0 
0.0867847 1.17529 0 
0.127996 1.08641 0 
-1.40872e-17 1.11503 0 
0.0750943 0.997176 0 
0.057897 1.07436 0 
0 1 0 
</DataArray>
</Points>
<Cells>
<DataArray type="Int32" Name="connectivity" format="ascii">
2 1 6 
0 5 7 
7 1 0 
7 6 1 
9 2 6 
3 4 11 
5 3 11 
4 13 14 
14 11 4 
5 11 19 
19 7 5 
6 7 20 
20 7 19 
8 20 18 
20 9 6 
9 20 8 
12 10 23 
21 23 10 
19 11 24 
24 11 14 
12 23 25 
13 25 14 
25 13 12 
14 26 24 
26 14 25 
15 16 28 
17 15 28 
16 29 30 
30 28 16 
37 17 28 
17 37 36 
18 20 38 
27 18 38 
39 19 24 
39 38 20 
20 19 39 
21 22 41 
41 23 21 
42 41 22 
22 40 42 
23 41 43 
25 23 43 
44 24 26 
39 24 44 
43 45 25 
45 26 25 
44 26 46 
26 45 46 
31 27 48 
27 38 48 
49 28 30 
28 49 37 
29 33 50 
29 50 30 
49 30 51 
51 30 50 
32 31 52 
48 52 31 
32 53 34 
52 53 32 
54 50 33 
34 53 54 
33 34 54 
55 35 56 
35 36 56 
37 56 36 
49 56 37 
48 38 59 
44 59 39 
59 38 39 
40 47 60 
60 42 40 
41 42 61 
42 60 61 
61 43 41 
43 61 62 
45 43 62 
63 59 44 
46 63 44 
62 64 45 
46 45 64 
46 64 63 
47 58 65 
47 65 60 
48 66 52 
59 66 48 
72 67 71 
75 56 49 
51 75 49 
50 54 76 
50 76 51 
76 75 51 
53 52 77 
66 77 52 
78 54 53 
78 53 77 
54 78 76 
57 55 80 
80 56 75 
56 80 55 
79 57 81 
57 80 81 
83 65 58 
58 74 83 
59 63 84 
84 66 59 
85 61 60 
62 61 85 
65 85 60 
62 86 64 
85 86 62 
63 64 87 
87 84 63 
87 64 86 
85 65 88 
83 88 65 
77 66 89 
66 84 89 
67 91 71 
91 67 68 
92 91 68 
68 70 92 
69 90 93 
70 93 92 
93 70 69 
94 71 91 
71 94 95 
72 71 95 
95 73 72 
74 73 96 
96 83 74 
73 95 96 
80 75 97 
75 76 97 
76 98 97 
76 78 98 
99 77 89 
99 98 78 
77 99 78 
82 79 101 
81 101 79 
97 102 80 
102 101 81 
81 80 102 
100 82 103 
82 101 103 
83 96 104 
104 88 83 
105 84 87 
105 89 84 
106 86 85 
88 106 85 
86 106 107 
107 105 87 
87 86 107 
108 106 88 
88 104 108 
109 99 89 
89 105 109 
90 110 93 
111 91 92 
94 91 111 
111 92 112 
112 93 110 
112 92 93 
111 113 94 
114 94 113 
114 95 94 
95 114 115 
96 95 115 
115 104 96 
102 97 116 
116 97 98 
98 99 117 
117 116 98 
117 99 118 
99 109 118 
119 100 121 
103 121 100 
122 101 102 
122 102 116 
103 122 121 
101 122 103 
123 104 115 
104 123 108 
124 105 107 
124 109 105 
107 106 125 
108 125 106 
125 108 123 
125 124 107 
109 124 126 
109 126 118 
110 127 112 
112 128 111 
127 128 112 
111 128 113 
128 129 113 
129 114 113 
114 129 130 
115 130 123 
115 114 130 
131 118 126 
117 132 116 
122 116 132 
133 132 117 
118 133 117 
133 118 131 
134 120 135 
120 119 136 
136 135 120 
121 136 119 
121 137 136 
137 121 122 
132 137 122 
123 139 125 
139 123 130 
126 140 131 
124 125 141 
126 124 141 
141 125 139 
141 140 126 
127 142 128 
128 143 129 
143 128 142 
144 129 143 
144 139 130 
129 144 130 
131 140 145 
145 133 131 
146 137 132 
132 133 146 
146 133 145 
138 134 147 
135 147 134 
148 147 135 
148 135 136 
148 136 137 
148 137 146 
138 147 149 
150 138 149 
140 152 145 
139 153 141 
144 153 139 
140 154 152 
154 141 153 
140 141 154 
142 155 143 
155 156 143 
144 143 156 
144 156 157 
153 144 157 
159 145 152 
146 145 159 
146 160 148 
159 160 146 
161 149 147 
161 148 160 
148 161 147 
149 161 162 
162 150 149 
150 162 151 
158 151 163 
151 162 163 
164 159 152 
164 152 154 
157 165 153 
154 165 164 
154 153 165 
155 166 156 
156 167 157 
166 167 156 
157 168 165 
168 157 167 
163 169 158 
170 158 169 
171 159 164 
171 160 159 
172 169 163 
173 161 160 
173 162 161 
160 171 173 
162 173 163 
163 173 172 
174 171 164 
165 168 174 
164 165 174 
166 175 167 
174 168 177 
178 167 175 
178 177 168 
167 178 168 
179 169 172 
179 170 169 
170 179 176 
172 180 179 
180 172 173 
171 180 173 
174 180 171 
181 174 177 
180 174 181 
175 182 178 
183 176 179 
184 181 177 
178 184 177 
184 178 182 
181 184 185 
179 186 183 
186 179 180 
181 186 180 
186 181 185 
182 187 184 
188 183 186 
184 189 185 
189 184 187 
190 185 189 
185 190 186 
186 190 188 
187 191 189 
192 188 190 
191 193 189 
190 193 192 
190 189 193 
194 192 193 
191 194 193 
</DataArray>
<DataArray type="Int32" Name="offsets" format="ascii">
3
6
9
12
15
18
21
24
27
30
33
36
39
42
45
48
51
54
57
60
63
66
69
72
75
78
81
84
87
90
93
96
99
102
105
108
111
114
117
120
123
126
129
132
135
138
141
144
147
150
153
156
159
162
165
168
171
174
177
180
183
186
189
192
195
198
201
204
207
210
213
216
219
222
225
228
231
234
237
240
243
246
249
252
255
258
261
264
267
270
273
276
279
282
285
288
291
294
297
300
303
306
309
312
315
318
321
324
327
330
333
336
339
342
345
348
351
354
357
360
363
366
369
372
375
378
381
384
387
390
393
396
399
402
405
408
411
414
417
420
423
426
429
432
435
438
441
444
447
450
453
456
459
462
465
468
471
474
477
480
483
486
489
492
495
498
501
504
507
510
513
516
519
522
525
528
531
534
537
540
543
546
549
552
555
558
561
564
567
570
573
576
579
582
585
588
591
594
597
600
603
606
609
612
615
618
621
624
627
630
633
636
639
642
645
648
651
654
657
660
663
666
669
672
675
678
681
684
687
690
693
696
699
702
705
708
711
714
717
720
723
726
729
732
735
738
741
744
747
750
753
756
759
762
765
768
771
774
777
780
783
786
789
792
795
798
801
804
807
810
813
816
819
822
825
828
831
834
837
840
843
846
849
852
855
858
861
864
867
870
873
876
879
882
885
888
891
894
897
900
903
906
909
912
915
918
921
924
927
930
933
936
939
942
945
948
951
954
957
960
963
966
969
972
975
</DataArray>
<DataArray type="UInt8" Name="types" format="ascii">
5
5
5
5
5
5
5
5
5
5
5
5
5
5
5
5
5
5
5
5
5
5
5
5
5
5
5
5
5
5
5
5
5
5
5
5
5
5
5
5
5
5
5
5
5
5
5
5
5
5
5
5
5
5
5
5
5
5
5
5
5
5
5
5
5
5
5
5
5
5
5
5
5
5
5
5
5
5
5
5
5
5
5
5
5
5
5
5
5
5
5
5
5
5
5
5
5
5
5
5
5
5
5
5
5
5
5
5
5
5
5
5
5
5
5
5
5
5
5
5
5
5
5
5
5
5
5
5
5
5
5
5
5
5
5
5
5
5
5
5
5
5
5
5
5
5
5
5
5
5
5
5
5
5
5
5
5
5
5
5
5
5
5
5
5
5
5
5
5
5
5
5
5
5
5
5
5
5
5
5
5
5
5
5
5
5
5
5
5
5
5
5
5
5
5
5
5
5
5
5
5
5
5
5
5
5
5
5
5
5
5
5
5
5
5
5
5
5
5
5
5
5
5
5
5
5
5
5
5
5
5
5
5
5
5
5
5
5
5
5
5
5
5
5
5
5
5
5
5
5
5
5
5
5
5
5
5
5
5
5
5
5
5
5
5
5
5
5
5
5
5
5
5
5
5
5
5
5
5
5
5
5
5
5
5
5
5
5
5
5
5
5
5
5
5
5
5
5
5
5
5
5
5
5
5
5
5
5
5
5
5
5
5
5
5
5
5
5
5
5
5
5
5
5
5
</DataArray>
</Cells>
<PointData>
<DataArray type="Float64" Name="solution_field" NumberOfComponents="4" format="ascii">
2.93816 0.0875123 -0.457899 3.11965 
2.93822 -0.00164766 -0.40805 3.11259 
2.93927 0.0455051 -0.482289 3.12131 
2.95201 0.155961 -0.502475 3.13085 
2.93901 0.174956 -0.367485 3.11252 
2.93826 0.0729709 -0.396508 3.11169 
2.95478 0.0492166 -0.561669 3.12946 
2.95389 0.0874087 -0.573879 3.12797 
2.92063 0.00917688 -0.555326 3.09252 
2.95909 -0.0101761 -0.539283 3.12921 
2.95787 0.281459 -0.421464 3.1317 
2.94314 0.158256 -0.52765 3.11818 
2.95015 0.255875 -0.433208 3.12851 
2.95399 0.210705 -0.46018 3.13205 
2.95054 0.206196 -0.525854 3.12536 
2.04863 -0.0209268 -1.34938 2.28358 
2.23004 0.0359188 -1.30393 2.46412 
2.0208 0.085349 -1.36139 2.25451 
2.93878 0.0146531 -0.62444 3.11591 
2.94883 0.142484 -0.579676 3.12341 
2.92516 0.0455193 -0.544273 3.09689 
2.94906 0.323854 -0.390936 3.12758 
2.95911 0.350723 -0.396131 3.13645 
2.94526 0.286454 -0.418358 3.12106 
2.93795 0.185474 -0.54719 3.10867 
2.94117 0.255075 -0.445527 3.11141 
2.92993 0.26463 -0.51503 3.10246 
2.86681 -0.0190102 -0.678207 3.04688 
2.13152 0.0928842 -1.30163 2.36094 
2.3124 -0.0115776 -1.2551 2.5319 
2.27518 0.0762023 -1.29864 2.50004 
2.85611 0.0166365 -0.776848 3.04066 
2.76706 -0.0064462 -0.895588 2.96018 
2.5316 0.00955191 -1.1626 2.74601 
2.6382 0.00212982 -1.03313 2.83441 
2.01168 0.31773 -1.31676 2.24647 
2.00591 0.197115 -1.317 2.23921 
2.12424 0.166228 -1.3147 2.3556 
2.90639 0.0852714 -0.677382 3.08518 
2.91281 0.112058 -0.559926 3.08529 
2.94013 0.351135 -0.321161 3.12214 
2.94057 0.307005 -0.368142 3.11236 
2.95106 0.366204 -0.353126 3.12128 
2.94999 0.35644 -0.474531 3.12201 
2.90672 0.213576 -0.58403 3.08249 
2.9225 0.312657 -0.533417 3.10051 
2.93299 0.288083 -0.552843 3.09795 
2.95924 0.385235 -0.333216 3.13426 
2.84245 0.0939246 -0.701142 3.02359 
2.21564 0.148989 -1.31442 2.45611 
2.41798 0.106681 -1.19027 2.63971 
2.35682 0.17596 -1.19504 2.56548 
2.80163 0.120933 -0.881821 2.98579 
2.6968 0.115951 -0.944748 2.89966 
2.58838 0.117614 -1.13762 2.79342 
1.96544 0.371381 -1.28771 2.20084 
2.12349 0.261997 -1.30645 2.35385 
2.0441 0.512146 -1.24417 2.27219 
2.9508 0.399798 -0.263745 3.12332 
2.89068 0.222175 -0.694157 3.07536 
2.94941 0.386652 -0.345582 3.11989 
2.93371 0.382409 -0.434594 3.11445 
2.93344 0.376602 -0.437559 3.0981 
2.87085 0.289938 -0.581523 3.06349 
2.89558 0.35128 -0.506553 3.07223 
2.93639 0.432096 -0.312446 3.11499 
2.82731 0.203271 -0.725705 3.00759 
2.93577 0.482235 -0.140282 3.13462 
2.96382 0.518433 -0.147006 3.13336 
2.9504 0.534829 -0.0430408 3.13563 
2.94023 0.472532 -0.0353286 3.12663 
2.96727 0.542781 -0.20634 3.12915 
2.93497 0.402818 -0.151407 3.10974 
2.96629 0.504523 -0.224654 3.14043 
2.94101 0.400072 -0.221812 3.12337 
2.28965 0.280499 -1.23121 2.51178 
2.4682 0.267976 -1.20184 2.69414 
2.7601 0.265057 -0.923322 2.96102 
2.61931 0.251012 -0.983479 2.8102 
1.96911 0.589452 -1.23714 2.21208 
2.17629 0.427329 -1.25541 2.41426 
2.08918 0.490518 -1.22266 2.32129 
2.04695 0.667137 -1.15049 2.2757 
2.95283 0.480251 -0.318757 3.12509 
2.86101 0.324424 -0.689832 3.03058 
2.93642 0.438697 -0.416748 3.10669 
2.89678 0.403524 -0.466035 3.07911 
2.88714 0.429842 -0.626436 3.07416 
2.93182 0.441125 -0.339296 3.09969 
2.78332 0.368473 -0.775011 2.97757 
2.94652 0.487398 0.03458 3.12933 
2.94927 0.486142 -0.0932284 3.11145 
2.94268 0.527185 -0.0872769 3.11855 
2.96182 0.529648 -0.0742398 3.11999 
2.91512 0.522133 -0.148133 3.09601 
2.94227 0.508001 -0.197922 3.11887 
2.93613 0.456587 -0.253809 3.10652 
2.37454 0.387092 -1.15048 2.58638 
2.5696 0.409746 -1.06333 2.78296 
2.7038 0.408464 -0.89863 2.89899 
1.95631 0.741301 -1.14775 2.19649 
2.14709 0.631874 -1.15688 2.37783 
2.2608 0.5441 -1.17658 2.48659 
2.10666 0.685666 -1.14148 2.34213 
2.9304 0.542725 -0.276976 3.10536 
2.83483 0.428642 -0.588332 3.01213 
2.90266 0.515341 -0.413477 3.0828 
2.86818 0.481295 -0.533408 3.04617 
2.90247 0.502835 -0.361639 3.07909 
2.78037 0.51012 -0.780352 2.9792 
2.93349 0.545831 0.0150117 3.11028 
2.93618 0.577921 -0.12538 3.1147 
2.92974 0.56296 -0.0269972 3.1046 
2.92983 0.623463 -0.137094 3.10275 
2.92359 0.59388 -0.197788 3.09489 
2.92753 0.537823 -0.25385 3.09845 
2.42824 0.541547 -1.09043 2.65242 
2.58607 0.532769 -0.954965 2.78663 
2.68401 0.561237 -0.786688 2.87818 
2.04522 0.799354 -1.06394 2.27842 
1.94127 0.89891 -0.989847 2.17405 
2.14446 0.795777 -1.0395 2.37213 
2.29999 0.630362 -1.09761 2.52334 
2.897 0.569365 -0.333746 3.07619 
2.82353 0.567884 -0.586884 3.00486 
2.87887 0.570178 -0.419923 3.06394 
2.7508 0.619307 -0.66426 2.94842 
2.92958 0.612344 -0.0365336 3.10967 
2.90356 0.623078 -0.0658447 3.07523 
2.88848 0.621532 -0.175293 3.06738 
2.88239 0.620008 -0.237767 3.06815 
2.69163 0.687328 -0.733307 2.88008 
2.47093 0.686083 -0.97673 2.68444 
2.60973 0.672358 -0.889458 2.8238 
2.03407 0.971235 -0.905095 2.26544 
2.12076 0.959911 -0.929524 2.35612 
2.18813 0.858848 -1.01463 2.42142 
2.30884 0.776603 -1.01827 2.53801 
1.96379 1.01725 -0.849371 2.1958 
2.85153 0.680003 -0.355145 3.03052 
2.7054 0.745066 -0.643398 2.90846 
2.8135 0.661284 -0.491916 2.99629 
2.88854 0.673551 0.0191761 3.06327 
2.8656 0.730868 -0.101121 3.05544 
2.85788 0.755091 -0.223915 3.03799 
2.59914 0.776827 -0.728514 2.79923 
2.45624 0.825913 -0.848453 2.66977 
2.11088 1.01514 -0.887832 2.3467 
2.24831 0.914256 -0.886981 2.47095 
2.14014 1.09619 -0.760924 2.37133 
2.01624 1.09093 -0.746128 2.2486 
1.96689 1.17351 -0.629761 2.19895 
2.64071 0.786321 -0.616451 2.83024 
2.77683 0.761412 -0.377439 2.96999 
2.72733 0.847785 -0.498155 2.92556 
2.8569 0.773244 -0.0181146 3.04035 
2.79241 0.817277 -0.110665 2.975 
2.76674 0.866905 -0.244619 2.95795 
2.00775 1.20536 -0.56986 2.23875 
2.55168 0.968244 -0.717925 2.77489 
2.39018 0.960982 -0.755077 2.60848 
2.23257 1.04128 -0.79193 2.46656 
2.12723 1.11875 -0.750696 2.36197 
2.13645 1.17639 -0.627937 2.3724 
2.58796 0.92903 -0.523872 2.79103 
2.69559 0.90899 -0.400056 2.8906 
2.78433 0.897794 0.0296742 2.97215 
2.7151 0.946822 -0.158046 2.9151 
2.64828 1.00786 -0.239809 2.85102 
2.02727 1.21456 -0.518371 2.25664 
2.01255 1.26185 -0.536521 2.25565 
2.45945 1.0376 -0.589882 2.6724 
2.21321 1.20798 -0.550049 2.44558 
2.29041 1.10717 -0.584188 2.51092 
2.55728 1.07292 -0.415149 2.76914 
2.66211 1.00188 -0.00149359 2.86473 
1.93083 1.24516 -0.397977 2.15722 
2.5307 1.09335 -0.292694 2.73697 
2.61063 1.1114 -0.125381 2.81317 
2.12063 1.28638 -0.336302 2.35281 
2.32199 1.17944 -0.459762 2.54976 
2.39046 1.18568 -0.256789 2.60693 
2.54158 1.1406 0.00311843 2.74731 
2.08319 1.31514 -0.283303 2.32068 
2.40229 1.17836 -0.137047 2.62325 
2.31434 1.33808 -0.232911 2.55206 
2.23575 1.27385 -0.313932 2.46345 
2.3759 1.25608 0.00357988 2.60123 
1.91431 1.30593 -0.212236 2.14608 
2.2541 1.31125 -0.108725 2.47756 
2.10429 1.26262 -0.0987499 2.3317 
2.18884 1.34623 0.00171098 2.42641 
2.10769 1.42565 -0.139893 2.35392 
2.12962 1.26799 -0.079923 2.35613 
1.90695 1.31218 0.00499267 2.13737 
</DataArray>
<DataArray type="Int32" Name="reordered dof numbers" NumberOfComponents="4" format="ascii">
13 14 15 16 
5 6 7 8 
1 2 3 4 
29 30 31 32 
33 34 35 36 
17 18 19 20 
9 10 11 12 
21 22 23 24 
57 58 59 60 
25 26 27 28 
69 70 71 72 
37 38 39 40 
65 66 67 68 
41 42 43 44 
45 46 47 48 
93 94 95 96 
97 98 99 100 
105 106 107 108 
61 62 63 64 
49 50 51 52 
53 54 55 56 
77 78 79 80 
137 138 139 140 
73 74 75 76 
81 82 83 84 
85 86 87 88 
89 90 91 92 
129 130 131 132 
101 102 103 104 
109 110 111 112 
113 114 115 116 
169 170 171 172 
193 194 195 196 
181 182 183 184 
205 206 207 208 
217 218 219 220 
121 122 123 124 
117 118 119 120 
125 126 127 128 
133 134 135 136 
149 150 151 152 
141 142 143 144 
145 146 147 148 
153 154 155 156 
157 158 159 160 
161 162 163 164 
165 166 167 168 
229 230 231 232 
173 174 175 176 
177 178 179 180 
185 186 187 188 
189 190 191 192 
197 198 199 200 
201 202 203 204 
209 210 211 212 
213 214 215 216 
221 222 223 224 
293 294 295 296 
253 254 255 256 
225 226 227 228 
233 234 235 236 
237 238 239 240 
241 242 243 244 
245 246 247 248 
249 250 251 252 
257 258 259 260 
261 262 263 264 
269 270 271 272 
345 346 347 348 
357 358 359 360 
353 354 355 356 
273 274 275 276 
265 266 267 268 
377 378 379 380 
313 314 315 316 
277 278 279 280 
281 282 283 284 
285 286 287 288 
289 290 291 292 
301 302 303 304 
297 298 299 300 
305 306 307 308 
397 398 399 400 
309 310 311 312 
317 318 319 320 
321 322 323 324 
325 326 327 328 
329 330 331 332 
333 334 335 336 
337 338 339 340 
361 362 363 364 
341 342 343 344 
349 350 351 352 
365 366 367 368 
369 370 371 372 
373 374 375 376 
381 382 383 384 
385 386 387 388 
389 390 391 392 
393 394 395 396 
409 410 411 412 
401 402 403 404 
405 406 407 408 
413 414 415 416 
417 418 419 420 
421 422 423 424 
425 426 427 428 
429 430 431 432 
433 434 435 436 
437 438 439 440 
441 442 443 444 
445 446 447 448 
449 450 451 452 
453 454 455 456 
457 458 459 460 
461 462 463 464 
465 466 467 468 
469 470 471 472 
473 474 475 476 
477 478 479 480 
537 538 539 540 
481 482 483 484 
485 486 487 488 
489 490 491 492 
493 494 495 496 
497 498 499 500 
501 502 503 504 
505 506 507 508 
509 510 511 512 
513 514 515 516 
517 518 519 520 
521 522 523 524 
525 526 527 528 
529 530 531 532 
533 534 535 536 
541 542 543 544 
545 546 547 548 
549 550 551 552 
585 586 587 588 
553 554 555 556 
557 558 559 560 
561 562 563 564 
565 566 567 568 
569 570 571 572 
573 574 575 576 
577 578 579 580 
581 582 583 584 
589 590 591 592 
593 594 595 596 
597 598 599 600 
601 602 603 604 
645 646 647 648 
605 606 607 608 
609 610 611 612 
613 614 615 616 
617 618 619 620 
621 622 623 624 
625 626 627 628 
649 650 651 652 
629 630 631 632 
633 634 635 636 
637 638 639 640 
641 642 643 644 
653 654 655 656 
657 658 659 660 
661 662 663 664 
665 666 667 668 
669 670 671 672 
673 674 675 676 
677 678 679 680 
681 682 683 684 
685 686 687 688 
689 690 691 692 
693 694 695 696 
697 698 699 700 
701 702 703 704 
717 718 719 720 
705 706 707 708 
709 710 711 712 
713 714 715 716 
721 722 723 724 
725 726 727 728 
729 730 731 732 
733 734 735 736 
737 738 739 740 
741 742 743 744 
745 746 747 748 
749 750 751 752 
753 754 755 756 
757 758 759 760 
761 762 763 764 
765 766 767 768 
769 770 771 772 
773 774 775 776 
777 778 779 780 
</DataArray>
</PointData>
<CellData>
<DataArray type="Int32" Name="faceNums_1" NumberOfComponents="1" format="ascii">
0 
1 
2 
3 
4 
5 
6 
7 
8 
9 
10 
11 
12 
13 
14 
15 
16 
17 
18 
19 
20 
21 
22 
23 
24 
25 
26 
27 
28 
29 
30 
31 
32 
33 
34 
35 
36 
37 
38 
39 
40 
41 
42 
43 
44 
45 
46 
47 
48 
49 
50 
51 
52 
53 
54 
55 
56 
57 
58 
59 
60 
61 
62 
63 
64 
65 
66 
67 
68 
69 
70 
71 
72 
73 
74 
75 
76 
77 
78 
79 
80 
81 
82 
83 
84 
85 
86 
87 
88 
89 
90 
91 
92 
93 
94 
95 
96 
97 
98 
99 
100 
101 
102 
103 
104 
105 
106 
107 
108 
109 
110 
111 
112 
113 
114 
115 
116 
117 
118 
119 
120 
121 
122 
123 
124 
125 
126 
127 
128 
129 
130 
131 
132 
133 
134 
135 
136 
137 
138 
139 
140 
141 
142 
143 
144 
145 
146 
147 
148 
149 
150 
151 
152 
153 
154 
155 
156 
157 
158 
159 
160 
161 
162 
163 
164 
165 
166 
167 
168 
169 
170 
171 
172 
173 
174 
175 
176 
177 
178 
179 
180 
181 
182 
183 
184 
185 
186 
187 
188 
189 
190 
191 
192 
193 
194 
195 
196 
197 
198 
199 
200 
201 
202 
203 
204 
205 
206 
207 
208 
209 
210 
211 
212 
213 
214 
215 
216 
217 
218 
219 
220 
221 
222 
223 
224 
225 
226 
227 
228 
229 
230 
231 
232 
233 
234 
235 
236 
237 
238 
239 
240 
241 
242 
243 
244 
245 
246 
247 
248 
249 
250 
251 
252 
253 
254 
255 
256 
257 
258 
259 
260 
261 
262 
263 
264 
265 
266 
267 
268 
269 
270 
271 
272 
273 
274 
275 
276 
277 
278 
279 
280 
281 
282 
283 
284 
285 
286 
287 
288 
289 
290 
291 
292 
293 
294 
295 
296 
297 
298 
299 
300 
301 
302 
303 
304 
305 
306 
307 
308 
309 
310 
311 
312 
313 
314 
315 
316 
317 
318 
319 
320 
321 
322 
323 
324 
</DataArray>
<DataArray type="Int32" Name="apf_part" NumberOfComponents="1" format="ascii">
0
0
0
0
0
0
0
0
0
0
0
0
0
0
0
0
0
0
0
0
0
0
0
0
0
0
0
0
0
0
0
0
0
0
0
0
0
0
0
0
0
0
0
0
0
0
0
0
0
0
0
0
0
0
0
0
0
0
0
0
0
0
0
0
0
0
0
0
0
0
0
0
0
0
0
0
0
0
0
0
0
0
0
0
0
0
0
0
0
0
0
0
0
0
0
0
0
0
0
0
0
0
0
0
0
0
0
0
0
0
0
0
0
0
0
0
0
0
0
0
0
0
0
0
0
0
0
0
0
0
0
0
0
0
0
0
0
0
0
0
0
0
0
0
0
0
0
0
0
0
0
0
0
0
0
0
0
0
0
0
0
0
0
0
0
0
0
0
0
0
0
0
0
0
0
0
0
0
0
0
0
0
0
0
0
0
0
0
0
0
0
0
0
0
0
0
0
0
0
0
0
0
0
0
0
0
0
0
0
0
0
0
0
0
0
0
0
0
0
0
0
0
0
0
0
0
0
0
0
0
0
0
0
0
0
0
0
0
0
0
0
0
0
0
0
0
0
0
0
0
0
0
0
0
0
0
0
0
0
0
0
0
0
0
0
0
0
0
0
0
0
0
0
0
0
0
0
0
0
0
0
0
0
0
0
0
0
0
0
0
0
0
0
0
0
0
0
0
0
0
0
0
0
0
0
0
0
0
0
0
0
0
0
0
0
0
0
0
0
0
0
0
0
0
0
</DataArray>
</CellData>
</Piece>
</UnstructuredGrid>
</VTKFile>
